<?xml version="1.0"?>
<!-- WEC-Sim Visualization using ParaView -->
<!--   model: PA - ran on 19-May-2024 10:38:06 -->
<!--   body:  cylinder -->
<!--   time:  43 -->
<VTKFile type="PolyData" version="0.1">
  <PolyData>
    <Piece NumberOfPoints="112" NumberOfPolys="220">
      <Points>
        <DataArray type="Float32" NumberOfComponents="3" format="ascii">
          2.00000 0.00000 4.81511
          1.61803 -1.17557 4.81511
          1.61803 -1.17557 3.81511
          2.00000 0.00000 3.81511
          0.61803 -1.90211 4.81511
          0.61803 -1.90211 3.81511
          -0.61803 -1.90211 4.81511
          -0.61803 -1.90211 3.81511
          -1.61803 -1.17557 4.81511
          -1.61803 -1.17557 3.81511
          -2.00000 -0.00000 4.81511
          -2.00000 -0.00000 3.81511
          -1.61803 1.17557 4.81511
          -1.61803 1.17557 3.81511
          -0.61803 1.90211 4.81511
          -0.61803 1.90211 3.81511
          0.61803 1.90211 4.81511
          0.61803 1.90211 3.81511
          1.61803 1.17557 4.81511
          1.61803 1.17557 3.81511
          1.61803 -1.17557 2.81511
          2.00000 0.00000 2.81511
          0.61803 -1.90211 2.81511
          -0.61803 -1.90211 2.81511
          -1.61803 -1.17557 2.81511
          -2.00000 -0.00000 2.81511
          -1.61803 1.17557 2.81511
          -0.61803 1.90211 2.81511
          0.61803 1.90211 2.81511
          1.61803 1.17557 2.81511
          1.61803 -1.17557 1.81511
          2.00000 0.00000 1.81511
          0.61803 -1.90211 1.81511
          -0.61803 -1.90211 1.81511
          -1.61803 -1.17557 1.81511
          -2.00000 -0.00000 1.81511
          -1.61803 1.17557 1.81511
          -0.61803 1.90211 1.81511
          0.61803 1.90211 1.81511
          1.61803 1.17557 1.81511
          1.61803 -1.17557 0.81511
          2.00000 0.00000 0.81511
          0.61803 -1.90211 0.81511
          -0.61803 -1.90211 0.81511
          -1.61803 -1.17557 0.81511
          -2.00000 -0.00000 0.81511
          -1.61803 1.17557 0.81511
          -0.61803 1.90211 0.81511
          0.61803 1.90211 0.81511
          1.61803 1.17557 0.81511
          1.61803 -1.17557 -0.18489
          2.00000 0.00000 -0.18489
          0.61803 -1.90211 -0.18489
          -0.61803 -1.90211 -0.18489
          -1.61803 -1.17557 -0.18489
          -2.00000 -0.00000 -0.18489
          -1.61803 1.17557 -0.18489
          -0.61803 1.90211 -0.18489
          0.61803 1.90211 -0.18489
          1.61803 1.17557 -0.18489
          1.61803 -1.17557 -1.18489
          2.00000 0.00000 -1.18489
          0.61803 -1.90211 -1.18489
          -0.61803 -1.90211 -1.18489
          -1.61803 -1.17557 -1.18489
          -2.00000 -0.00000 -1.18489
          -1.61803 1.17557 -1.18489
          -0.61803 1.90211 -1.18489
          0.61803 1.90211 -1.18489
          1.61803 1.17557 -1.18489
          1.61803 -1.17557 -2.18489
          2.00000 0.00000 -2.18489
          0.61803 -1.90211 -2.18489
          -0.61803 -1.90211 -2.18489
          -1.61803 -1.17557 -2.18489
          -2.00000 -0.00000 -2.18489
          -1.61803 1.17557 -2.18489
          -0.61803 1.90211 -2.18489
          0.61803 1.90211 -2.18489
          1.61803 1.17557 -2.18489
          1.61803 -1.17557 -3.18489
          2.00000 0.00000 -3.18489
          0.61803 -1.90211 -3.18489
          -0.61803 -1.90211 -3.18489
          -1.61803 -1.17557 -3.18489
          -2.00000 -0.00000 -3.18489
          -1.61803 1.17557 -3.18489
          -0.61803 1.90211 -3.18489
          0.61803 1.90211 -3.18489
          1.61803 1.17557 -3.18489
          1.61803 -1.17557 -4.18489
          2.00000 0.00000 -4.18489
          0.61803 -1.90211 -4.18489
          -0.61803 -1.90211 -4.18489
          -1.61803 -1.17557 -4.18489
          -2.00000 -0.00000 -4.18489
          -1.61803 1.17557 -4.18489
          -0.61803 1.90211 -4.18489
          0.61803 1.90211 -4.18489
          1.61803 1.17557 -4.18489
          1.61803 -1.17557 -5.18489
          2.00000 0.00000 -5.18489
          0.61803 -1.90211 -5.18489
          -0.61803 -1.90211 -5.18489
          -1.61803 -1.17557 -5.18489
          -2.00000 -0.00000 -5.18489
          -1.61803 1.17557 -5.18489
          -0.61803 1.90211 -5.18489
          0.61803 1.90211 -5.18489
          1.61803 1.17557 -5.18489
          0.00000 0.00000 4.81511
          0.00000 0.00000 -5.18489
        </DataArray>
      </Points>
      <Polys>
        <DataArray type="Int32" Name="connectivity" format="ascii">
          0 1 2
          0 2 3
          1 4 5
          1 5 2
          4 6 7
          4 7 5
          6 8 9
          6 9 7
          8 10 11
          8 11 9
          10 12 13
          10 13 11
          12 14 15
          12 15 13
          14 16 17
          14 17 15
          16 18 19
          16 19 17
          18 0 3
          18 3 19
          3 2 20
          3 20 21
          2 5 22
          2 22 20
          5 7 23
          5 23 22
          7 9 24
          7 24 23
          9 11 25
          9 25 24
          11 13 26
          11 26 25
          13 15 27
          13 27 26
          15 17 28
          15 28 27
          17 19 29
          17 29 28
          19 3 21
          19 21 29
          21 20 30
          21 30 31
          20 22 32
          20 32 30
          22 23 33
          22 33 32
          23 24 34
          23 34 33
          24 25 35
          24 35 34
          25 26 36
          25 36 35
          26 27 37
          26 37 36
          27 28 38
          27 38 37
          28 29 39
          28 39 38
          29 21 31
          29 31 39
          31 30 40
          31 40 41
          30 32 42
          30 42 40
          32 33 43
          32 43 42
          33 34 44
          33 44 43
          34 35 45
          34 45 44
          35 36 46
          35 46 45
          36 37 47
          36 47 46
          37 38 48
          37 48 47
          38 39 49
          38 49 48
          39 31 41
          39 41 49
          41 40 50
          41 50 51
          40 42 52
          40 52 50
          42 43 53
          42 53 52
          43 44 54
          43 54 53
          44 45 55
          44 55 54
          45 46 56
          45 56 55
          46 47 57
          46 57 56
          47 48 58
          47 58 57
          48 49 59
          48 59 58
          49 41 51
          49 51 59
          51 50 60
          51 60 61
          50 52 62
          50 62 60
          52 53 63
          52 63 62
          53 54 64
          53 64 63
          54 55 65
          54 65 64
          55 56 66
          55 66 65
          56 57 67
          56 67 66
          57 58 68
          57 68 67
          58 59 69
          58 69 68
          59 51 61
          59 61 69
          61 60 70
          61 70 71
          60 62 72
          60 72 70
          62 63 73
          62 73 72
          63 64 74
          63 74 73
          64 65 75
          64 75 74
          65 66 76
          65 76 75
          66 67 77
          66 77 76
          67 68 78
          67 78 77
          68 69 79
          68 79 78
          69 61 71
          69 71 79
          71 70 80
          71 80 81
          70 72 82
          70 82 80
          72 73 83
          72 83 82
          73 74 84
          73 84 83
          74 75 85
          74 85 84
          75 76 86
          75 86 85
          76 77 87
          76 87 86
          77 78 88
          77 88 87
          78 79 89
          78 89 88
          79 71 81
          79 81 89
          81 80 90
          81 90 91
          80 82 92
          80 92 90
          82 83 93
          82 93 92
          83 84 94
          83 94 93
          84 85 95
          84 95 94
          85 86 96
          85 96 95
          86 87 97
          86 97 96
          87 88 98
          87 98 97
          88 89 99
          88 99 98
          89 81 91
          89 91 99
          91 90 100
          91 100 101
          90 92 102
          90 102 100
          92 93 103
          92 103 102
          93 94 104
          93 104 103
          94 95 105
          94 105 104
          95 96 106
          95 106 105
          96 97 107
          96 107 106
          97 98 108
          97 108 107
          98 99 109
          98 109 108
          99 91 101
          99 101 109
          110 1 0
          110 4 1
          110 6 4
          110 8 6
          110 10 8
          110 12 10
          110 14 12
          110 16 14
          110 18 16
          110 0 18
          111 101 100
          111 100 102
          111 102 103
          111 103 104
          111 104 105
          111 105 106
          111 106 107
          111 107 108
          111 108 109
          111 109 101
        </DataArray>
        <DataArray type="Int32" Name="offsets" format="ascii">
          3 6 9 12 15 18 21 24 27 30 33 36 39 42 45 48 51 54 57 60 63 66 69 72 75 78 81 84 87 90 93 96 99 102 105 108 111 114 117 120 123 126 129 132 135 138 141 144 147 150 153 156 159 162 165 168 171 174 177 180 183 186 189 192 195 198 201 204 207 210 213 216 219 222 225 228 231 234 237 240 243 246 249 252 255 258 261 264 267 270 273 276 279 282 285 288 291 294 297 300 303 306 309 312 315 318 321 324 327 330 333 336 339 342 345 348 351 354 357 360 363 366 369 372 375 378 381 384 387 390 393 396 399 402 405 408 411 414 417 420 423 426 429 432 435 438 441 444 447 450 453 456 459 462 465 468 471 474 477 480 483 486 489 492 495 498 501 504 507 510 513 516 519 522 525 528 531 534 537 540 543 546 549 552 555 558 561 564 567 570 573 576 579 582 585 588 591 594 597 600 603 606 609 612 615 618 621 624 627 630 633 636 639 642 645 648 651 654 657 660
        </DataArray>
      </Polys>
      <CellData>
        <DataArray type="Float32" Name="CellArea" NumberOfComponents="1" format="ascii">
          6.180340e-01          6.180340e-01          6.180340e-01          6.180340e-01          6.180340e-01          6.180340e-01          6.180340e-01          6.180340e-01          6.180340e-01          6.180340e-01          6.180340e-01          6.180340e-01          6.180340e-01          6.180340e-01          6.180340e-01          6.180340e-01          6.180340e-01          6.180340e-01          6.180340e-01          6.180340e-01          6.180340e-01          6.180340e-01          6.180340e-01          6.180340e-01          6.180340e-01          6.180340e-01          6.180340e-01          6.180340e-01          6.180340e-01          6.180340e-01          6.180340e-01          6.180340e-01          6.180340e-01          6.180340e-01          6.180340e-01          6.180340e-01          6.180340e-01          6.180340e-01          6.180340e-01          6.180340e-01          6.180340e-01          6.180340e-01          6.180340e-01          6.180340e-01          6.180340e-01          6.180340e-01          6.180340e-01          6.180340e-01          6.180340e-01          6.180340e-01          6.180340e-01          6.180340e-01          6.180340e-01          6.180340e-01          6.180340e-01          6.180340e-01          6.180340e-01          6.180340e-01          6.180340e-01          6.180340e-01          6.180340e-01          6.180340e-01          6.180340e-01          6.180340e-01          6.180340e-01          6.180340e-01          6.180340e-01          6.180340e-01          6.180340e-01          6.180340e-01          6.180340e-01          6.180340e-01          6.180340e-01          6.180340e-01          6.180340e-01          6.180340e-01          6.180340e-01          6.180340e-01          6.180340e-01          6.180340e-01          6.180340e-01          6.180340e-01          6.180340e-01          6.180340e-01          6.180340e-01          6.180340e-01          6.180340e-01          6.180340e-01          6.180340e-01          6.180340e-01          6.180340e-01          6.180340e-01          6.180340e-01          6.180340e-01          6.180340e-01          6.180340e-01          6.180340e-01          6.180340e-01          6.180340e-01          6.180340e-01          6.180340e-01          6.180340e-01          6.180340e-01          6.180340e-01          6.180340e-01          6.180340e-01          6.180340e-01          6.180340e-01          6.180340e-01          6.180340e-01          6.180340e-01          6.180340e-01          6.180340e-01          6.180340e-01          6.180340e-01          6.180340e-01          6.180340e-01          6.180340e-01          6.180340e-01          6.180340e-01          6.180340e-01          6.180340e-01          6.180340e-01          6.180340e-01          6.180340e-01          6.180340e-01          6.180340e-01          6.180340e-01          6.180340e-01          6.180340e-01          6.180340e-01          6.180340e-01          6.180340e-01          6.180340e-01          6.180340e-01          6.180340e-01          6.180340e-01          6.180340e-01          6.180340e-01          6.180340e-01          6.180340e-01          6.180340e-01          6.180340e-01          6.180340e-01          6.180340e-01          6.180340e-01          6.180340e-01          6.180340e-01          6.180340e-01          6.180340e-01          6.180340e-01          6.180340e-01          6.180340e-01          6.180340e-01          6.180340e-01          6.180340e-01          6.180340e-01          6.180340e-01          6.180340e-01          6.180340e-01          6.180340e-01          6.180340e-01          6.180340e-01          6.180340e-01          6.180340e-01          6.180340e-01          6.180340e-01          6.180340e-01          6.180340e-01          6.180340e-01          6.180340e-01          6.180340e-01          6.180340e-01          6.180340e-01          6.180340e-01          6.180340e-01          6.180340e-01          6.180340e-01          6.180340e-01          6.180340e-01          6.180340e-01          6.180340e-01          6.180340e-01          6.180340e-01          6.180340e-01          6.180340e-01          6.180340e-01          6.180340e-01          6.180340e-01          6.180340e-01          6.180340e-01          6.180340e-01          6.180340e-01          6.180340e-01          6.180340e-01          6.180340e-01          6.180340e-01          6.180340e-01          6.180340e-01          6.180340e-01          1.175570e+00          1.175571e+00          1.175571e+00          1.175571e+00          1.175570e+00          1.175570e+00          1.175571e+00          1.175571e+00          1.175571e+00          1.175570e+00          1.175570e+00          1.175571e+00          1.175571e+00          1.175571e+00          1.175570e+00          1.175570e+00          1.175571e+00          1.175571e+00          1.175571e+00          1.175570e+00
        </DataArray>
      </CellData>
    </Piece>
  </PolyData>
</VTKFile>